# vtk DataFile Version 3.0
vtk output
ASCII
DATASET POLYDATA
POINTS 4 float
0 0 0
39 0 0
39 27 0
0 27 0
POLYGONS 1 5
4 0 1 2 3
CELL_DATA 1
POINT_DATA 4
SCALARS nodal float
LOOKUP_TABLE default
0 1 2 1.1
